{"nodes": [{"name": "Addition of Reals", "group":1},{"name": "Sum Notation", "group":1},
		{"name": "Dot Product", "group":1},
		{"name": "Inner Product", "group":1},
		{"name": "Wittig Reaction", "group":2},
		{"name": "Carbonyl Chemistry", "group":2},
		{"name": "JSON", "group":3},
		{"name": "D3", "group":3},
		{"name": "JavaScript", "group":3},
		{"name": "Proof Techniques", "group":0},
		{"name": "Proof by Construction", "group":0},
		{"name": "Proof by Contrapositive", "group":0},
		{"name": "Proof by Contradiction", "group":0},
		{"name": "Proof by Induction", "group":0},
		{"name": "Atomic Theory", "group":2},
		{"name": "Electronegativity Trends", "group":2},
		{"name": "Atomic Radii Trends", "group":2},
		{"name": "Induction", "group":2},
		{"name": "Ionization Energy", "group":2},
		{"name": "Acidity", "group":2},
		{"name": "Kekule Structure", "group":2},
		{"name": "Markush Structure", "group":2},
		{"name": "Medicinal Chemistry", "group":2},
		{"name": "SAR", "group":2},
		{"name": "Nomenclature of Organic Molecules", "group":2},
		{"name": "IUPAC Nomenclature", "group":2},
		{"name": "SMILES", "group":2},
		{"name": "InChI", "group":2},
		{"name": "InChI Key", "group":2},
		{"name": "Mechanism", "group":2},
		{"name": "SN1", "group":2},
		{"name": "SN2", "group":2},
		{"name": "Electrophilic Aromatic Substitution", "group":2},
		{"name": "Alkene Reaction", "group":2},
		{"name": "", "group":2},
		{"name": "", "group":2},
		{"name": "", "group":2},
		{"name": "", "group":2},
		{"name": "", "group":2},
		{"name": "", "group":2},
		{"name": "", "group":2},
		{"name": "", "group":2},
		{"name": "", "group":2}
	],
	"links": [
		{"source": 0, "target": 1, "value": 1},
		{"source": 1, "target": 2, "value": 1},
		{"source": 1, "target": 3, "value": 1},
		{"source": 2, "target": 3, "value": 2},
		{"source": 5, "target": 4, "value": 1},
		{"source": 6, "target": 7, "value": 1},
		{"source": 8, "target": 7, "value": 1},
		{"source": 9, "target": 10, "value": 3},
		{"source": 9, "target": 11, "value": 3},
		{"source": 9, "target": 12, "value": 3},
		{"source": 9, "target": 13, "value": 3},
		{"source": 14, "target": 15, "value": 3},
		{"source": 14, "target": 16, "value": 3},
		{"source": 14, "target": 17, "value": 3},
		{"source": 14, "target": 18, "value": 3},
		{"source":30, "target":29, "value":0},
		{"source":31, "target":29, "value":0},
		{"source":32, "target":29, "value":0},
		{"source":33, "target":29, "value":0},
		{"source":25, "target":24, "value":0},
		{"source":26, "target":24, "value":0},
		{"source":27, "target":24, "value":0},
		{"source":28, "target":24, "value":0}
	],
	"linkDict": {
		"0": "Undef",
		"1": "Useful Intuition",
		"2": "Conceptutally Necessary"
	},
	"_comment1": {"source":0, "target":0, "value":0}
}